                         Program Version 5.0.4 -  RELEASE  -
|  1> ! PBE def2-TZVP TightSCF EnGrad
|  2> %pal nprocs 8 end
|  3> *xyz 0 1
|  4> C   3.2329406642916143 1.963063165248208 -0.06042900579323485
|  5> N   2.4011030782262113 0.8341576061207372 0.10951583458760626
|  6> C   1.1114513511568425 0.8147926213220293 -0.22379878992846675
|  7> O   0.5734773732255571 1.6601016909602675 -0.9471516424850658
|  8> C   0.3030463527692228 -0.25475390355021355 0.3435342379570184
|  9> C   0.9507090511314417 -1.687391485438238 0.33703234858277786
| 10> N   -0.9037775609872591 -0.3826578679428958 -0.4066655148493564
| 11> C   -2.07449381683962 -0.7835702742743227 0.20612491476188732
| 12> C   -3.327231655867818 -0.5648368942746177 -0.5560387672896546
| 13> O   -2.0388413719614307 -1.3488099443323363 1.3061563862497916
| 14> H   3.2150858729014358 2.313999827827406 -1.1033244665335518
| 15> H   2.9199252141095413 2.8573471281941933 0.5477543757186449
| 16> H   4.280705671481325 1.6965585423057519 0.166783207343343
| 17> H   2.6128728506497976 0.21030681062420584 0.9808405009118076
| 18> H   -0.0005074623044411628 -0.1330445581422158 1.4059777600921461
| 19> H   1.1668871625588872 -1.9489840077132297 -0.6796705249364973
| 20> H   1.8133192863040446 -1.8024504211370185 1.0289348020679945
| 21> H   0.22624600842250409 -2.419178759179462 0.6924853025048141
| 22> H   -0.8982930958853336 0.15290297247043683 -1.243659169039562
| 23> H   -3.9714054626350888 -1.4691140764179687 -0.47871510380330934
| 24> H   -3.140571087411871 -0.6510068467793146 -1.6061215710224588
| 25> H   -3.972551787291007 0.21922632161115144 -0.2288030312727066
| 26> *
| 27>
| 28>                          ****END OF INPUT****

CARTESIAN COORDINATES (ANGSTROEM)
---------------------------------
  C      3.232941    1.963063   -0.060429
  N      2.401103    0.834158    0.109516
  C      1.111451    0.814793   -0.223799
  O      0.573477    1.660102   -0.947152
  C      0.303046   -0.254754    0.343534
  C      0.950709   -1.687391    0.337032
  N     -0.903778   -0.382658   -0.406666
  C     -2.074494   -0.783570    0.206125
  C     -3.327232   -0.564837   -0.556039
  O     -2.038841   -1.348810    1.306156
  H      3.215086    2.314000   -1.103324
  H      2.919925    2.857347    0.547754
  H      4.280706    1.696559    0.166783
  H      2.612873    0.210307    0.980841
  H     -0.000507   -0.133045    1.405978
  H      1.166887   -1.948984   -0.679671
  H      1.813319   -1.802450    1.028935
  H      0.226246   -2.419179    0.692485
  H     -0.898293    0.152903   -1.243659
  H     -3.971405   -1.469114   -0.478715
  H     -3.140571   -0.651007   -1.606122
  H     -3.972552    0.219226   -0.228803

 Total Charge           Charge          ....    0
 Multiplicity           Mult            ....    1
 Number of Electrons    NEL             ....   78
 Basis Dimension        Dim             ....  382

ORBITAL ENERGIES
----------------

  NO   OCC          E(Eh)            E(eV)
   0   2.0000     -18.724618      -509.5228
   1   2.0000     -18.708276      -509.0781
   2   2.0000     -14.033535      -381.8719
   3   2.0000     -14.001396      -380.9974
   4   2.0000      -9.979190      -271.5476
   5   2.0000      -9.972250      -271.3587
   6   2.0000      -9.930940      -270.2346
   7   2.0000      -9.927050      -270.1288
   8   2.0000      -9.881842      -268.8986
   9   2.0000      -9.879024      -268.8219
  10   2.0000      -0.964774       -26.2528
  11   2.0000      -0.938065       -25.5260
  12   2.0000      -0.865640       -23.5553
  13   2.0000      -0.845000       -22.9936
  14   2.0000      -0.717305       -19.5189
  15   2.0000      -0.672942       -18.3117
  16   2.0000      -0.646862       -17.6020
  17   2.0000      -0.594991       -16.1905
  18   2.0000      -0.536716       -14.6048
  19   2.0000      -0.527680       -14.3589
  20   2.0000      -0.500526       -13.6200
  21   2.0000      -0.442351       -12.0370
  22   2.0000      -0.438178       -11.9234
  23   2.0000      -0.416632       -11.3371
  24   2.0000      -0.414649       -11.2832
  25   2.0000      -0.411158       -11.1882
  26   2.0000      -0.381454       -10.3799
  27   2.0000      -0.371108       -10.0984
  28   2.0000      -0.361330        -9.8323
  29   2.0000      -0.354761        -9.6535
  30   2.0000      -0.347158        -9.4466
  31   2.0000      -0.338382        -9.2079
  32   2.0000      -0.333755        -9.0819
  33   2.0000      -0.322381        -8.7724
  34   2.0000      -0.294260        -8.0072
  35   2.0000      -0.242519        -6.5993
  36   2.0000      -0.223975        -6.0947
  37   2.0000      -0.217241        -5.9114
  38   2.0000      -0.204779        -5.5723
  39   0.0000      -0.038387        -1.0446
  40   0.0000      -0.023022        -0.6265
  41   0.0000      -0.012131        -0.3301
  42   0.0000       0.025623         0.6972
  43   0.0000       0.032292         0.8787

MULLIKEN ATOMIC CHARGES
-----------------------
   0 C :   -0.281061
   1 N :   -0.195205
   2 C :    0.198975
   3 O :   -0.358145
   4 C :    0.049907
   5 C :   -0.371599
   6 N :   -0.252503
   7 C :    0.257765
   8 C :   -0.385307
   9 O :   -0.361499
  10 H :    0.149381
  11 H :    0.126105
  12 H :    0.130560
  13 H :    0.222412
  14 H :    0.110403
  15 H :    0.109258
  16 H :    0.084739
  17 H :    0.157539
  18 H :    0.208102
  19 H :    0.138202
  20 H :    0.117907
  21 H :    0.144064
Sum of atomic charges:    0.0000000

LOEWDIN ATOMIC CHARGES
----------------------
   0 C :   -0.341353
   1 N :    0.119673
   2 C :   -0.487949
   3 O :    0.077220
   4 C :   -0.294612
   5 C :   -0.280841
   6 N :    0.170577
   7 C :   -0.476014
   8 C :   -0.278309
   9 O :    0.063125
  10 H :    0.131850
  11 H :    0.123008
  12 H :    0.123414
  13 H :    0.223363
  14 H :    0.175121
  15 H :    0.117927
  16 H :    0.113621
  17 H :    0.132484
  18 H :    0.178663
  19 H :    0.148456
  20 H :    0.128397
  21 H :    0.132178

  Mayer bond orders larger than 0.100000
B(  0-C ,  1-N ) :   0.9782 B(  0-C , 10-H ) :   0.9597 B(  0-C , 11-H ) :   0.9561
B(  0-C , 12-H ) :   0.9586 B(  1-N ,  2-C ) :   1.2821 B(  1-N , 13-H ) :   0.8827
B(  2-C ,  3-O ) :   1.9601 B(  2-C ,  4-C ) :   0.9631 B(  4-C ,  5-C ) :   0.9575
B(  4-C ,  6-N ) :   0.9941 B(  4-C , 14-H ) :   0.9004 B(  5-C , 15-H ) :   0.9661
B(  5-C , 16-H ) :   0.9496 B(  5-C , 17-H ) :   0.9614 B(  6-N ,  7-C ) :   1.2237
B(  6-N , 18-H ) :   0.8855 B(  7-C ,  8-C ) :   0.9928 B(  7-C ,  9-O ) :   1.9414
B(  8-C , 19-H ) :   0.9695 B(  8-C , 20-H ) :   0.9633 B(  8-C , 21-H ) :   0.9354

FINAL SINGLE POINT ENERGY      -495.425430883341

DIPOLE MOMENT
-------------
                                X             Y             Z
Electronic contribution:     -2.48106       1.35846       0.41725
Nuclear contribution   :      3.64835      -1.23259      -0.60861
                        -----------------------------------------
Total Dipole Moment    :      1.16729       0.12586      -0.19136
                        -----------------------------------------
Magnitude (a.u.)       :      1.18955
Magnitude (Debye)      :      3.02359

Rotational constants in cm-1:     0.097935     0.023051     0.020016
Rotational constants in MHz :  2936.006913   691.054505   600.057053

                             ****ORCA TERMINATED NORMALLY****
TOTAL RUN TIME: 0 days 0 hours 0 minutes 7 seconds 364 msec
