                         Program Version 5.0.4 -  RELEASE  -
|  1> ! PBE def2-TZVP TightSCF EnGrad
|  2> %pal nprocs 8 end
|  3> *xyz 0 1
|  4> C   -2.295121201140459 2.7422935628538934 -0.5668975802666153
|  5> N   -1.3360725159718003 1.6711150844677845 -0.8331855458518629
|  6> C   -0.3492422545483897 1.3752767728155058 0.07222061503417082
|  7> O   -0.22288749063767382 1.9730731665273373 1.1337137601425344
|  8> C   0.6460706522833621 0.2377056752847951 -0.2977825700118821
|  9> C   1.3732636460797676 0.49385012508525855 -1.6489970554122317
| 10> N   0.07329671794788475 -1.0646151587061452 -0.13354992502719992
| 11> C   0.6782839776754518 -2.0856546909338496 0.5464369578659422
| 12> C   -0.09431017640819614 -3.391426739932018 0.6737806965864249
| 13> O   1.7009879917925186 -1.9377862401988584 1.1923805429425804
| 14> H   -1.779314917996862 3.735541549315105 -0.4234821284847151
| 15> H   -3.035184452563713 2.8302673865748367 -1.3747264282718323
| 16> H   -2.9155543994863127 2.495168476770214 0.2883692747680271
| 17> H   -1.3331971655413581 1.1320123414170742 -1.6963583870302874
| 18> H   1.3914930027799641 0.36935871792042024 0.5439100238079522
| 19> H   0.6608289261273389 0.5360689391456869 -2.4525552434348907
| 20> H   2.031548429342542 1.4080594925156442 -1.6986277940618975
| 21> H   1.9900626516921913 -0.4167546057891384 -1.8377726532577252
| 22> H   -0.7998780388336054 -1.2044390209091815 -0.6159868069735043
| 23> H   -1.0432126583964967 -3.089864762799547 1.1750478330651333
| 24> H   0.48366694605681404 -4.1830121916564345 1.132965235778463
| 25> H   -0.29525627655352704 -3.7525854485431642 -0.3380389498601222
| 26> *
| 27>
| 28>                          ****END OF INPUT****

CARTESIAN COORDINATES (ANGSTROEM)
---------------------------------
  C     -2.295121    2.742294   -0.566898
  N     -1.336073    1.671115   -0.833186
  C     -0.349242    1.375277    0.072221
  O     -0.222887    1.973073    1.133714
  C      0.646071    0.237706   -0.297783
  C      1.373264    0.493850   -1.648997
  N      0.073297   -1.064615   -0.133550
  C      0.678284   -2.085655    0.546437
  C     -0.094310   -3.391427    0.673781
  O      1.700988   -1.937786    1.192381
  H     -1.779315    3.735542   -0.423482
  H     -3.035184    2.830267   -1.374726
  H     -2.915554    2.495168    0.288369
  H     -1.333197    1.132012   -1.696358
  H      1.391493    0.369359    0.543910
  H      0.660829    0.536069   -2.452555
  H      2.031548    1.408059   -1.698628
  H      1.990063   -0.416755   -1.837773
  H     -0.799878   -1.204439   -0.615987
  H     -1.043213   -3.089865    1.175048
  H      0.483667   -4.183012    1.132965
  H     -0.295256   -3.752585   -0.338039

 Total Charge           Charge          ....    0
 Multiplicity           Mult            ....    1
 Number of Electrons    NEL             ....   78
 Basis Dimension        Dim             ....  382

ORBITAL ENERGIES
----------------

  NO   OCC          E(Eh)            E(eV)
   0   2.0000     -18.717053      -509.3169
   1   2.0000     -18.710358      -509.1347
   2   2.0000     -14.027134      -381.6977
   3   2.0000     -14.020409      -381.5147
   4   2.0000      -9.977304      -271.4962
   5   2.0000      -9.976837      -271.4836
   6   2.0000      -9.935772      -270.3661
   7   2.0000      -9.927972      -270.1539
   8   2.0000      -9.894791      -269.2509
   9   2.0000      -9.890260      -269.1276
  10   2.0000      -0.952935       -25.9307
  11   2.0000      -0.946850       -25.7651
  12   2.0000      -0.857885       -23.3442
  13   2.0000      -0.846762       -23.0416
  14   2.0000      -0.711443       -19.3594
  15   2.0000      -0.665334       -18.1047
  16   2.0000      -0.648876       -17.6568
  17   2.0000      -0.591658       -16.0998
  18   2.0000      -0.543500       -14.7894
  19   2.0000      -0.534734       -14.5509
  20   2.0000      -0.493643       -13.4327
  21   2.0000      -0.444827       -12.1044
  22   2.0000      -0.422011       -11.4835
  23   2.0000      -0.420165       -11.4333
  24   2.0000      -0.409097       -11.1321
  25   2.0000      -0.399959       -10.8835
  26   2.0000      -0.383073       -10.4239
  27   2.0000      -0.376473       -10.2443
  28   2.0000      -0.366258        -9.9664
  29   2.0000      -0.354207        -9.6385
  30   2.0000      -0.348764        -9.4904
  31   2.0000      -0.343184        -9.3385
  32   2.0000      -0.328871        -8.9490
  33   2.0000      -0.321419        -8.7462
  34   2.0000      -0.308874        -8.4049
  35   2.0000      -0.240843        -6.5537
  36   2.0000      -0.233025        -6.3409
  37   2.0000      -0.207172        -5.6374
  38   2.0000      -0.201169        -5.4741
  39   0.0000      -0.030504        -0.8301
  40   0.0000      -0.021661        -0.5894
  41   0.0000      -0.011581        -0.3151
  42   0.0000       0.015364         0.4181
  43   0.0000       0.027063         0.7364

MULLIKEN ATOMIC CHARGES
-----------------------
   0 C :   -0.270757
   1 N :   -0.244731
   2 C :    0.175660
   3 O :   -0.303329
   4 C :    0.039628
   5 C :   -0.351774
   6 N :   -0.237280
   7 C :    0.219891
   8 C :   -0.363994
   9 O :   -0.317723
  10 H :    0.141454
  11 H :    0.124822
  12 H :    0.142265
  13 H :    0.206396
  14 H :    0.116373
  15 H :    0.081932
  16 H :    0.135596
  17 H :    0.136888
  18 H :    0.189302
  19 H :    0.126781
  20 H :    0.141664
  21 H :    0.110938
Sum of atomic charges:   -0.0000000

LOEWDIN ATOMIC CHARGES
----------------------
   0 C :   -0.319540
   1 N :    0.093168
   2 C :   -0.453670
   3 O :    0.097873
   4 C :   -0.290305
   5 C :   -0.291687
   6 N :    0.150766
   7 C :   -0.498239
   8 C :   -0.275987
   9 O :    0.096155
  10 H :    0.131348
  11 H :    0.118819
  12 H :    0.120769
  13 H :    0.175801
  14 H :    0.183985
  15 H :    0.105843
  16 H :    0.136439
  17 H :    0.136450
  18 H :    0.177430
  19 H :    0.143815
  20 H :    0.132816
  21 H :    0.127952

  Mayer bond orders larger than 0.100000
B(  0-C ,  1-N ) :   0.9582 B(  0-C , 10-H ) :   0.9582 B(  0-C , 11-H ) :   0.9571
B(  0-C , 12-H ) :   0.9650 B(  1-N ,  2-C ) :   1.1903 B(  1-N , 13-H ) :   0.9090
B(  2-C ,  3-O ) :   2.0949 B(  2-C ,  4-C ) :   0.9552 B(  4-C ,  5-C ) :   0.9762
B(  4-C ,  6-N ) :   0.8756 B(  4-C , 14-H ) :   0.9067 B(  5-C , 15-H ) :   0.9497
B(  5-C , 16-H ) :   0.9609 B(  5-C , 17-H ) :   0.9690 B(  6-N ,  7-C ) :   1.1868
B(  6-N , 18-H ) :   0.9084 B(  7-C ,  8-C ) :   0.9697 B(  7-C ,  9-O ) :   2.0398
B(  8-C , 19-H ) :   0.9434 B(  8-C , 20-H ) :   0.9725 B(  8-C , 21-H ) :   0.9554

FINAL SINGLE POINT ENERGY      -495.429507161832

DIPOLE MOMENT
-------------
                                X             Y             Z
Electronic contribution:      2.82746       0.02875       4.91326
Nuclear contribution   :     -4.40359      -0.23550      -6.94636
                        -----------------------------------------
Total Dipole Moment    :     -1.57613      -0.20674      -2.03309
                        -----------------------------------------
Magnitude (a.u.)       :      2.58078
Magnitude (Debye)      :      6.55981

Rotational constants in cm-1:     0.076929     0.022172     0.021263
Rotational constants in MHz :  2306.268168   664.691354   637.457051

                             ****ORCA TERMINATED NORMALLY****
TOTAL RUN TIME: 0 days 0 hours 0 minutes 8 seconds 760 msec
