                         Program Version 5.0.4 -  RELEASE  -
|  1> ! PBE def2-TZVP TightSCF EnGrad
|  2> %pal nprocs 8 end
|  3> *xyz 0 1
|  4> C   3.455805177497255 1.6777870382754636 0.49309626878713203
|  5> N   2.548736514506145 0.5271506446932677 0.32750713275410986
|  6> C   1.228101119205429 0.7522007151991084 0.08356331000283458
|  7> O   0.7785404738753614 1.824052491630863 -0.25637563341651215
|  8> C   0.27899614971924264 -0.42773884008633106 0.29042319363285996
|  9> C   0.6319295277484901 -1.59373419424376 -0.6081112235501595
| 10> N   -1.0110371606790587 0.025778791353790954 -0.10661693881142713
| 11> C   -2.166355741830729 -0.7001237243351054 0.016075360662351764
| 12> C   -3.3503091427049556 -0.027295204454558724 -0.5718682506167841
| 13> O   -2.139745650130018 -1.8590447385682256 0.5036373540040845
| 14> H   3.404871633082847 2.068357059953995 1.4976803470464954
| 15> H   4.4484155619640715 1.4411991079072686 0.26865950491213525
| 16> H   2.9996649982150534 2.43596035613502 -0.20439525164640346
| 17> H   2.7850259614650166 -0.3976631790660495 0.7639214624389514
| 18> H   0.09169462614258941 -0.6638922210660649 1.3479179266432166
| 19> H   0.5765953577760558 -1.1392788579906616 -1.5990552501206308
| 20> H   1.5660979642944177 -2.043656083984922 -0.42289002239156714
| 21> H   -0.1832618714907893 -2.364153216764454 -0.5717808317302434
| 22> H   -1.059543319432368 0.9455177828016927 -0.41933411370782864
| 23> H   -3.642093462282373 -0.4251012224666065 -1.5447464135091176
| 24> H   -3.1910496123601924 1.0450759278166084 -0.8011530339810256
| 25> H   -4.331400561885677 0.016389444391232577 -0.014869118032739513
| 26> *
| 27>
| 28>                          ****END OF INPUT****

CARTESIAN COORDINATES (ANGSTROEM)
---------------------------------
  C      3.455805    1.677787    0.493096
  N      2.548737    0.527151    0.327507
  C      1.228101    0.752201    0.083563
  O      0.778540    1.824052   -0.256376
  C      0.278996   -0.427739    0.290423
  C      0.631930   -1.593734   -0.608111
  N     -1.011037    0.025779   -0.106617
  C     -2.166356   -0.700124    0.016075
  C     -3.350309   -0.027295   -0.571868
  O     -2.139746   -1.859045    0.503637
  H      3.404872    2.068357    1.497680
  H      4.448416    1.441199    0.268660
  H      2.999665    2.435960   -0.204395
  H      2.785026   -0.397663    0.763921
  H      0.091695   -0.663892    1.347918
  H      0.576595   -1.139279   -1.599055
  H      1.566098   -2.043656   -0.422890
  H     -0.183262   -2.364153   -0.571781
  H     -1.059543    0.945518   -0.419334
  H     -3.642093   -0.425101   -1.544746
  H     -3.191050    1.045076   -0.801153
  H     -4.331401    0.016389   -0.014869

 Total Charge           Charge          ....    0
 Multiplicity           Mult            ....    1
 Number of Electrons    NEL             ....   78
 Basis Dimension        Dim             ....  382

ORBITAL ENERGIES
----------------

  NO   OCC          E(Eh)            E(eV)
   0   2.0000     -18.733389      -509.7614
   1   2.0000     -18.703236      -508.9409
   2   2.0000     -14.031275      -381.8104
   3   2.0000     -13.997007      -380.8779
   4   2.0000      -9.986474      -271.7458
   5   2.0000      -9.972741      -271.3721
   6   2.0000      -9.932603      -270.2799
   7   2.0000      -9.922288      -269.9992
   8   2.0000      -9.887313      -269.0475
   9   2.0000      -9.875669      -268.7306
  10   2.0000      -0.976801       -26.5801
  11   2.0000      -0.927570       -25.2405
  12   2.0000      -0.855438       -23.2777
  13   2.0000      -0.846140       -23.0246
  14   2.0000      -0.718793       -19.5594
  15   2.0000      -0.666029       -18.1236
  16   2.0000      -0.647302       -17.6140
  17   2.0000      -0.592824       -16.1316
  18   2.0000      -0.539958       -14.6930
  19   2.0000      -0.524634       -14.2760
  20   2.0000      -0.498329       -13.5602
  21   2.0000      -0.448122       -12.1940
  22   2.0000      -0.437624       -11.9083
  23   2.0000      -0.417039       -11.3482
  24   2.0000      -0.413538       -11.2529
  25   2.0000      -0.395981       -10.7752
  26   2.0000      -0.387233       -10.5371
  27   2.0000      -0.374431       -10.1888
  28   2.0000      -0.364103        -9.9077
  29   2.0000      -0.358697        -9.7606
  30   2.0000      -0.341997        -9.3062
  31   2.0000      -0.335826        -9.1383
  32   2.0000      -0.332291        -9.0421
  33   2.0000      -0.328204        -8.9309
  34   2.0000      -0.296484        -8.0677
  35   2.0000      -0.245687        -6.6855
  36   2.0000      -0.229699        -6.2504
  37   2.0000      -0.214753        -5.8437
  38   2.0000      -0.199592        -5.4312
  39   0.0000      -0.032391        -0.8814
  40   0.0000      -0.020985        -0.5710
  41   0.0000      -0.004595        -0.1250
  42   0.0000       0.024431         0.6648
  43   0.0000       0.034297         0.9333

MULLIKEN ATOMIC CHARGES
-----------------------
   0 C :   -0.275319
   1 N :   -0.246040
   2 C :    0.205453
   3 O :   -0.341083
   4 C :    0.084636
   5 C :   -0.368410
   6 N :   -0.245976
   7 C :    0.269529
   8 C :   -0.405506
   9 O :   -0.387131
  10 H :    0.129431
  11 H :    0.134745
  12 H :    0.157978
  13 H :    0.221999
  14 H :    0.100608
  15 H :    0.103301
  16 H :    0.093827
  17 H :    0.165798
  18 H :    0.196793
  19 H :    0.142969
  20 H :    0.118953
  21 H :    0.143444
Sum of atomic charges:    0.0000000

LOEWDIN ATOMIC CHARGES
----------------------
   0 C :   -0.302588
   1 N :    0.100589
   2 C :   -0.465301
   3 O :    0.101760
   4 C :   -0.295691
   5 C :   -0.281927
   6 N :    0.173019
   7 C :   -0.465063
   8 C :   -0.288708
   9 O :    0.030708
  10 H :    0.113200
  11 H :    0.104174
  12 H :    0.146142
  13 H :    0.197391
  14 H :    0.163243
  15 H :    0.136163
  16 H :    0.105589
  17 H :    0.146882
  18 H :    0.166792
  19 H :    0.139531
  20 H :    0.131849
  21 H :    0.142248

  Mayer bond orders larger than 0.100000
B(  0-C ,  1-N ) :   0.9453 B(  0-C , 10-H ) :   0.9657 B(  0-C , 11-H ) :   0.9619
B(  0-C , 12-H ) :   0.9497 B(  1-N ,  2-C ) :   1.2763 B(  1-N , 13-H ) :   0.8981
B(  2-C ,  3-O ) :   1.9365 B(  2-C ,  4-C ) :   0.9521 B(  4-C ,  5-C ) :   0.9437
B(  4-C ,  6-N ) :   0.9770 B(  4-C , 14-H ) :   0.9128 B(  5-C , 15-H ) :   0.9663
B(  5-C , 16-H ) :   0.9612 B(  5-C , 17-H ) :   0.9479 B(  6-N ,  7-C ) :   1.2276
B(  6-N , 18-H ) :   0.8897 B(  7-C ,  8-C ) :   1.0006 B(  7-C ,  9-O ) :   1.9190
B(  8-C , 19-H ) :   0.9386 B(  8-C , 20-H ) :   0.9616 B(  8-C , 21-H ) :   0.9485

FINAL SINGLE POINT ENERGY      -495.427396744799

DIPOLE MOMENT
-------------
                                X             Y             Z
Electronic contribution:     -1.61012      -0.01064       1.73774
Nuclear contribution   :      2.91059       0.52900      -1.72887
                        -----------------------------------------
Total Dipole Moment    :      1.30048       0.51836       0.00887
                        -----------------------------------------
Magnitude (a.u.)       :      1.40001
Magnitude (Debye)      :      3.55854

Rotational constants in cm-1:     0.103933     0.022383     0.019508
Rotational constants in MHz :  3115.821736   671.028482   584.824284

                             ****ORCA TERMINATED NORMALLY****
TOTAL RUN TIME: 0 days 0 hours 0 minutes 7 seconds 548 msec
